;;
;; Generated by CHARMM-GUI FF-Converter
;;
;; Correspondance:
;; jul316@lehigh.edu or wonpil@lehigh.edu
;;
;; GROMACS topology file for LI2
;;


[ moleculetype ]
; name	nrexcl
LI2	     3

[ atoms ]
; nr	type	resnr	residu	atom	cgnr	charge	mass
     1      NG3P3    299      LI2      N      1    -0.309000    14.0070   ; qtot -0.309
     2     CG2R61    299      LI2     C1      2    -0.121000    12.0110   ; qtot -0.430
     3     CG2R61    299      LI2     C2      3    -0.112000    12.0110   ; qtot -0.542
     4     CG2R61    299      LI2     C3      4    -0.116000    12.0110   ; qtot -0.658
     5     CG2R61    299      LI2     C4      5    -0.112000    12.0110   ; qtot -0.770
     6     CG2R61    299      LI2     C5      6    -0.121000    12.0110   ; qtot -0.891
     7     CG2R61    299      LI2     C6      7    -0.127000    12.0110   ; qtot -1.018
     8      CG324    299      LI2     C7      8     0.094000    12.0110   ; qtot -0.924
     9      CG321    299      LI2     C8      9     0.000000    12.0110   ; qtot -0.924
    10       HGP2    299      LI2     H1     10     0.328000     1.0080   ; qtot -0.596
    11       HGP2    299      LI2     H2     11     0.328000     1.0080   ; qtot -0.268
    12       HGP2    299      LI2     H3     12     0.328000     1.0080   ; qtot  0.060
    13      HGR61    299      LI2     H4     13     0.116000     1.0080   ; qtot  0.176
    14      HGR61    299      LI2     H5     14     0.116000     1.0080   ; qtot  0.292
    15      HGR61    299      LI2     H6     15     0.116000     1.0080   ; qtot  0.408
    16      HGR61    299      LI2     H7     16     0.116000     1.0080   ; qtot  0.524
    17      HGR61    299      LI2     H8     17     0.116000     1.0080   ; qtot  0.640
    18       HGA2    299      LI2     H9     18     0.090000     1.0080   ; qtot  0.730
    19       HGA2    299      LI2    H10     19     0.090000     1.0080   ; qtot  0.820
    20       HGA2    299      LI2    H11     20     0.090000     1.0080   ; qtot  0.910
    21       HGA2    299      LI2    H12     21     0.090000     1.0080   ; qtot  1.000

[ bonds ]
; ai	aj	funct	b0	Kb
    1     8     1
    1    10     1
    1    11     1
    1    12     1
    2     3     1
    2     7     1
    2    13     1
    3     4     1
    3    14     1
    4     5     1
    4    15     1
    5     6     1
    5    16     1
    6     7     1
    6    17     1
    7     9     1
    8     9     1
    8    18     1
    8    19     1
    9    20     1
    9    21     1

[ pairs ]
; ai	aj	funct	c6	c12 or
; ai	aj	funct	fudgeQQ	q1	q2	c6	c12
    1     7     1
    1    20     1
    1    21     1
    2     5     1
    2     8     1
    2    15     1
    2    17     1
    2    20     1
    2    21     1
    3     6     1
    3     9     1
    3    16     1
    4     7     1
    4    13     1
    4    17     1
    5     9     1
    5    14     1
    6     8     1
    6    13     1
    6    15     1
    6    20     1
    6    21     1
    7    14     1
    7    16     1
    7    18     1
    7    19     1
    9    10     1
    9    11     1
    9    12     1
    9    13     1
    9    17     1
   10    18     1
   10    19     1
   11    18     1
   11    19     1
   12    18     1
   12    19     1
   13    14     1
   14    15     1
   15    16     1
   16    17     1
   18    20     1
   18    21     1
   19    20     1
   19    21     1

[ angles ] 
; ai	aj	ak	funct	th0	cth	S0	Kub
    8     1    10     5
    8     1    11     5
    8     1    12     5
   10     1    11     5
   10     1    12     5
   11     1    12     5
    3     2     7     5
    3     2    13     5
    7     2    13     5
    2     3     4     5
    2     3    14     5
    4     3    14     5
    3     4     5     5
    3     4    15     5
    5     4    15     5
    4     5     6     5
    4     5    16     5
    6     5    16     5
    5     6     7     5
    5     6    17     5
    7     6    17     5
    2     7     6     5
    2     7     9     5
    6     7     9     5
    1     8     9     5
    1     8    18     5
    1     8    19     5
    9     8    18     5
    9     8    19     5
   18     8    19     5
    7     9     8     5
    7     9    20     5
    7     9    21     5
    8     9    20     5
    8     9    21     5
   20     9    21     5

[ dihedrals ]
; ai	aj	ak	al	funct	phi0	cp	mult
   10     1     8    18     9
   10     1     8    19     9
   11     1     8    18     9
   11     1     8    19     9
   12     1     8    18     9
   12     1     8    19     9
    7     2     3    14     9
   13     2     3    14     9
    3     2     7     6     9
    3     2     7     9     9
    4     3     2     7     9
    4     3     2    13     9
    2     3     4     5     9
    2     3     4    15     9
   14     3     4    15     9
    5     4     3    14     9
    3     4     5     6     9
    3     4     5    16     9
   15     4     5    16     9
    6     5     4    15     9
    4     5     6     7     9
    4     5     6    17     9
   16     5     6    17     9
    7     6     5    16     9
    5     6     7     9     9
    6     7     2    13     9
    9     7     2    13     9
    2     7     6     5     9
    2     7     6    17     9
    9     7     6    17     9
    2     7     9     8     9
    2     7     9    20     9
    2     7     9    21     9
    6     7     9     8     9
    6     7     9    20     9
    6     7     9    21     9
    9     8     1    10     9
    9     8     1    11     9
    9     8     1    12     9
    1     8     9     7     9
    1     8     9    20     9
    1     8     9    21     9
   18     8     9    20     9
   18     8     9    21     9
   19     8     9    20     9
   19     8     9    21     9
    7     9     8    18     9
    7     9     8    19     9

#ifdef POSRES
[ position_restraints ]
    1     1    POSRES_FC_BB    POSRES_FC_BB    POSRES_FC_BB   
    2     1    POSRES_FC_BB    POSRES_FC_BB    POSRES_FC_BB   
    3     1    POSRES_FC_BB    POSRES_FC_BB    POSRES_FC_BB   
    4     1    POSRES_FC_BB    POSRES_FC_BB    POSRES_FC_BB   
    5     1    POSRES_FC_BB    POSRES_FC_BB    POSRES_FC_BB   
    6     1    POSRES_FC_BB    POSRES_FC_BB    POSRES_FC_BB   
    7     1    POSRES_FC_BB    POSRES_FC_BB    POSRES_FC_BB   
    8     1    POSRES_FC_BB    POSRES_FC_BB    POSRES_FC_BB   
    9     1    POSRES_FC_BB    POSRES_FC_BB    POSRES_FC_BB   
#endif
