;;
;; Generated by CHARMM-GUI FF-Converter
;;
;; Correspondance:
;; jul316@lehigh.edu or wonpil@lehigh.edu
;;
;; GROMACS topology file for G4C
;;


[ moleculetype ]
; name	nrexcl
G4C	     3

[ atoms ]
; nr	type	resnr	residu	atom	cgnr	charge	mass
     1      CLGR1    350      G4C    CL4      1    -0.167000    35.4530   ; qtot -0.167
     2      CLGR1    350      G4C    CL9      2    -0.167000    35.4530   ; qtot -0.334
     3      OG311    350      G4C    O01      3    -0.645000    15.9994   ; qtot -0.979
     4      CG321    350      G4C    C02      4     0.032000    12.0110   ; qtot -0.947
     5      CG311    350      G4C    C03      5     0.064000    12.0110   ; qtot -0.883
     6      NG2S0    350      G4C    N04      6    -0.321000    14.0070   ; qtot -1.204
     7      CG2O1    350      G4C    C05      7     0.509000    12.0110   ; qtot -0.695
     8      CG321    350      G4C    C06      8    -0.158000    12.0110   ; qtot -0.853
     9     CG2R61    350      G4C    C07      9     0.092000    12.0110   ; qtot -0.761
    10     CG2R61    350      G4C    C08     10     0.013000    12.0110   ; qtot -0.748
    11     CG2R61    350      G4C    C10     11    -0.097000    12.0110   ; qtot -0.845
    12     CG2R61    350      G4C    C11     12    -0.116000    12.0110   ; qtot -0.961
    13     CG2R61    350      G4C    C12     13    -0.097000    12.0110   ; qtot -1.058
    14     CG2R61    350      G4C    C13     14     0.013000    12.0110   ; qtot -1.045
    15      OG2D1    350      G4C    O15     15    -0.521000    15.9994   ; qtot -1.566
    16      CG311    350      G4C    C16     16     0.152000    12.0110   ; qtot -1.414
    17      CG331    350      G4C    C17     17    -0.265000    12.0110   ; qtot -1.679
    18     CG2R61    350      G4C    C18     18    -0.115000    12.0110   ; qtot -1.794
    19     CG2R61    350      G4C    C19     19    -0.014000    12.0110   ; qtot -1.808
    20     CG2R61    350      G4C    C20     20     0.006000    12.0110   ; qtot -1.802
    21      CG321    350      G4C    C21     21    -0.140000    12.0110   ; qtot -1.942
    22      CG321    350      G4C    C22     22    -0.178000    12.0110   ; qtot -2.120
    23      CG301    350      G4C    C23     23     0.169000    12.0110   ; qtot -1.951
    24      CG331    350      G4C    C24     24    -0.276000    12.0110   ; qtot -2.227
    25      OG311    350      G4C    O25     25    -0.586000    15.9994   ; qtot -2.813
    26      CG331    350      G4C    C26     26    -0.276000    12.0110   ; qtot -3.089
    27     CG2R61    350      G4C    C27     27    -0.119000    12.0110   ; qtot -3.208
    28     CG2R61    350      G4C    C28     28    -0.110000    12.0110   ; qtot -3.318
    29     CG2R61    350      G4C    C29     29    -0.082000    12.0110   ; qtot -3.400
    30      CG321    350      G4C    C30     30    -0.153000    12.0110   ; qtot -3.553
    31       HGP1    350      G4C     H1     31     0.417000     1.0080   ; qtot -3.136
    32       HGA2    350      G4C     H2     32     0.090000     1.0080   ; qtot -3.046
    33       HGA2    350      G4C     H3     33     0.090000     1.0080   ; qtot -2.956
    34       HGA1    350      G4C     H4     34     0.090000     1.0080   ; qtot -2.866
    35       HGA2    350      G4C     H5     35     0.090000     1.0080   ; qtot -2.776
    36       HGA2    350      G4C     H6     36     0.090000     1.0080   ; qtot -2.686
    37      HGR62    350      G4C     H7     37     0.150000     1.0080   ; qtot -2.536
    38      HGR61    350      G4C     H8     38     0.116000     1.0080   ; qtot -2.420
    39      HGR62    350      G4C     H9     39     0.150000     1.0080   ; qtot -2.270
    40       HGA1    350      G4C    H10     40     0.090000     1.0080   ; qtot -2.180
    41       HGA3    350      G4C    H11     41     0.090000     1.0080   ; qtot -2.090
    42       HGA3    350      G4C    H12     42     0.090000     1.0080   ; qtot -2.000
    43       HGA3    350      G4C    H13     43     0.090000     1.0080   ; qtot -1.910
    44       HGA2    350      G4C    H14     44     0.090000     1.0080   ; qtot -1.820
    45       HGA2    350      G4C    H15     45     0.090000     1.0080   ; qtot -1.730
    46       HGA2    350      G4C    H16     46     0.090000     1.0080   ; qtot -1.640
    47       HGA2    350      G4C    H17     47     0.090000     1.0080   ; qtot -1.550
    48       HGA3    350      G4C    H18     48     0.090000     1.0080   ; qtot -1.460
    49       HGA3    350      G4C    H19     49     0.090000     1.0080   ; qtot -1.370
    50       HGA3    350      G4C    H20     50     0.090000     1.0080   ; qtot -1.280
    51       HGP1    350      G4C    H21     51     0.382000     1.0080   ; qtot -0.898
    52       HGA3    350      G4C    H22     52     0.090000     1.0080   ; qtot -0.808
    53       HGA3    350      G4C    H23     53     0.090000     1.0080   ; qtot -0.718
    54       HGA3    350      G4C    H24     54     0.090000     1.0080   ; qtot -0.628
    55      HGR61    350      G4C    H25     55     0.116000     1.0080   ; qtot -0.512
    56      HGR61    350      G4C    H26     56     0.116000     1.0080   ; qtot -0.396
    57      HGR61    350      G4C    H27     57     0.116000     1.0080   ; qtot -0.280
    58       HGA2    350      G4C    H28     58     0.090000     1.0080   ; qtot -0.190
    59       HGA2    350      G4C    H29     59     0.090000     1.0080   ; qtot -0.100
    60        LPH    350      G4C    LP1     60     0.050000     0.0000   ; qtot -0.050
    61        LPH    350      G4C    LP2     61     0.050000     0.0000   ; qtot -0.000

[ bonds ]
; ai	aj	funct	b0	Kb
    1    14     1
    2    10     1
    3     4     1
    3    31     1
    4     5     1
    4    32     1
    4    33     1
    5     6     1
    5    30     1
    5    34     1
    6     7     1
    6    16     1
    7     8     1
    7    15     1
    8     9     1
    8    35     1
    8    36     1
    9    10     1
    9    14     1
   10    11     1
   11    12     1
   11    37     1
   12    13     1
   12    38     1
   13    14     1
   13    39     1
   16    17     1
   16    18     1
   16    40     1
   17    41     1
   17    42     1
   17    43     1
   18    19     1
   18    29     1
   19    20     1
   19    30     1
   20    21     1
   20    27     1
   21    22     1
   21    44     1
   21    45     1
   22    23     1
   22    46     1
   22    47     1
   23    24     1
   23    25     1
   23    26     1
   24    48     1
   24    49     1
   24    50     1
   25    51     1
   26    52     1
   26    53     1
   26    54     1
   27    28     1
   27    55     1
   28    29     1
   28    56     1
   29    57     1
   30    58     1
   30    59     1

[ pairs ]
; ai	aj	funct	c6	c12 or
; ai	aj	funct	fudgeQQ	q1	q2	c6	c12
    1     8     1
    1    10     1
    1    12     1
    1    39     1
    2     8     1
    2    12     1
    2    14     1
    2    37     1
    3     6     1
    3    30     1
    3    34     1
    4     7     1
    4    16     1
    4    19     1
    4    58     1
    4    59     1
    5     8     1
    5    15     1
    5    17     1
    5    18     1
    5    20     1
    5    31     1
    5    40     1
    6     9     1
    6    19     1
    6    29     1
    6    32     1
    6    33     1
    6    35     1
    6    36     1
    6    41     1
    6    42     1
    6    43     1
    6    58     1
    6    59     1
    7    10     1
    7    14     1
    7    17     1
    7    18     1
    7    30     1
    7    34     1
    7    40     1
    8    11     1
    8    13     1
    8    16     1
    8    60     1
    8    61     1
    9    12     1
    9    15     1
    9    37     1
    9    39     1
   10    13     1
   10    35     1
   10    36     1
   10    38     1
   10    60     1
   11    14     1
   11    39     1
   12    60     1
   12    61     1
   13    37     1
   14    35     1
   14    36     1
   14    38     1
   14    61     1
   15    16     1
   15    35     1
   15    36     1
   16    20     1
   16    28     1
   16    30     1
   16    34     1
   16    57     1
   17    19     1
   17    29     1
   18    21     1
   18    27     1
   18    41     1
   18    42     1
   18    43     1
   18    56     1
   18    58     1
   18    59     1
   19    22     1
   19    28     1
   19    34     1
   19    40     1
   19    44     1
   19    45     1
   19    55     1
   19    57     1
   20    23     1
   20    29     1
   20    46     1
   20    47     1
   20    56     1
   20    58     1
   20    59     1
   21    24     1
   21    25     1
   21    26     1
   21    28     1
   21    30     1
   21    55     1
   22    27     1
   22    48     1
   22    49     1
   22    50     1
   22    51     1
   22    52     1
   22    53     1
   22    54     1
   23    44     1
   23    45     1
   24    46     1
   24    47     1
   24    51     1
   24    52     1
   24    53     1
   24    54     1
   25    46     1
   25    47     1
   25    48     1
   25    49     1
   25    50     1
   25    52     1
   25    53     1
   25    54     1
   26    46     1
   26    47     1
   26    48     1
   26    49     1
   26    50     1
   26    51     1
   27    30     1
   27    44     1
   27    45     1
   27    57     1
   29    30     1
   29    40     1
   29    55     1
   30    32     1
   30    33     1
   31    32     1
   31    33     1
   32    34     1
   33    34     1
   34    58     1
   34    59     1
   37    38     1
   37    61     1
   38    39     1
   39    60     1
   40    41     1
   40    42     1
   40    43     1
   44    46     1
   44    47     1
   45    46     1
   45    47     1
   55    56     1
   56    57     1

[ angles ] 
; ai	aj	ak	funct	th0	cth	S0	Kub
    4     3    31     5
    3     4     5     5
    3     4    32     5
    3     4    33     5
    5     4    32     5
    5     4    33     5
   32     4    33     5
    4     5     6     5
    4     5    30     5
    4     5    34     5
    6     5    30     5
    6     5    34     5
   30     5    34     5
    5     6     7     5
    5     6    16     5
    7     6    16     5
    6     7     8     5
    6     7    15     5
    8     7    15     5
    7     8     9     5
    7     8    35     5
    7     8    36     5
    9     8    35     5
    9     8    36     5
   35     8    36     5
    8     9    10     5
    8     9    14     5
   10     9    14     5
    2    10     9     5
    2    10    11     5
    9    10    11     5
   10    11    12     5
   10    11    37     5
   12    11    37     5
   11    12    13     5
   11    12    38     5
   13    12    38     5
   12    13    14     5
   12    13    39     5
   14    13    39     5
    1    14     9     5
    1    14    13     5
    9    14    13     5
    6    16    17     5
    6    16    18     5
    6    16    40     5
   17    16    18     5
   17    16    40     5
   18    16    40     5
   16    17    41     5
   16    17    42     5
   16    17    43     5
   41    17    42     5
   41    17    43     5
   42    17    43     5
   16    18    19     5
   16    18    29     5
   19    18    29     5
   18    19    20     5
   18    19    30     5
   20    19    30     5
   19    20    21     5
   19    20    27     5
   21    20    27     5
   20    21    22     5
   20    21    44     5
   20    21    45     5
   22    21    44     5
   22    21    45     5
   44    21    45     5
   21    22    23     5
   21    22    46     5
   21    22    47     5
   23    22    46     5
   23    22    47     5
   46    22    47     5
   22    23    24     5
   22    23    25     5
   22    23    26     5
   24    23    25     5
   24    23    26     5
   25    23    26     5
   23    24    48     5
   23    24    49     5
   23    24    50     5
   48    24    49     5
   48    24    50     5
   49    24    50     5
   23    25    51     5
   23    26    52     5
   23    26    53     5
   23    26    54     5
   52    26    53     5
   52    26    54     5
   53    26    54     5
   20    27    28     5
   20    27    55     5
   28    27    55     5
   27    28    29     5
   27    28    56     5
   29    28    56     5
   18    29    28     5
   18    29    57     5
   28    29    57     5
    5    30    19     5
    5    30    58     5
    5    30    59     5
   19    30    58     5
   19    30    59     5
   58    30    59     5

[ dihedrals ]
; ai	aj	ak	al	funct	phi0	cp	mult
   31     3     4    32     9
   31     3     4    33     9
    5     4     3    31     9
    3     4     5     6     9
    3     4     5    30     9
    3     4     5    34     9
   32     4     5    34     9
   33     4     5    34     9
    6     5     4    32     9
    6     5     4    33     9
   30     5     4    32     9
   30     5     4    33     9
    4     5     6     7     9
    4     5     6    16     9
    4     5    30    19     9
    4     5    30    58     9
    4     5    30    59     9
    6     5    30    19     9
    6     5    30    58     9
    6     5    30    59     9
   34     5    30    58     9
   34     5    30    59     9
    7     6     5    30     9
    7     6     5    34     9
   16     6     5    30     9
   16     6     5    34     9
    5     6     7     8     9
    5     6     7    15     9
    5     6    16    17     9
    5     6    16    18     9
    5     6    16    40     9
    7     6    16    17     9
    7     6    16    18     9
    7     6    16    40     9
    8     7     6    16     9
   15     7     6    16     9
    6     7     8     9     9
    6     7     8    35     9
    6     7     8    36     9
   15     7     8    35     9
   15     7     8    36     9
    9     8     7    15     9
    7     8     9    10     9
    7     8     9    14     9
   10     9     8    35     9
   10     9     8    36     9
   14     9     8    35     9
   14     9     8    36     9
    8     9    10    11     9
    8     9    14    13     9
   10     9    14    13     9
    2    10     9     8     9
    2    10     9    14     9
   11    10     9    14     9
    2    10    11    12     9
    2    10    11    37     9
    9    10    11    12     9
    9    10    11    37     9
   10    11    12    13     9
   10    11    12    38     9
   37    11    12    38     9
   13    12    11    37     9
   11    12    13    14     9
   11    12    13    39     9
   38    12    13    39     9
   14    13    12    38     9
    1    14     9     8     9
    1    14     9    10     9
    1    14    13    12     9
    1    14    13    39     9
    9    14    13    12     9
    9    14    13    39     9
    6    16    17    41     9
    6    16    17    42     9
    6    16    17    43     9
   18    16    17    41     9
   18    16    17    42     9
   18    16    17    43     9
   40    16    17    41     9
   40    16    17    42     9
   40    16    17    43     9
    6    16    18    19     9
    6    16    18    29     9
   17    16    18    19     9
   17    16    18    29     9
   19    18    16    40     9
   29    18    16    40     9
   16    18    19    20     9
   16    18    19    30     9
   29    18    19    30     9
   16    18    29    28     9
   16    18    29    57     9
   19    18    29    28     9
   19    18    29    57     9
   20    19    18    29     9
   18    19    20    21     9
   18    19    20    27     9
   18    19    30    58     9
   18    19    30    59     9
   20    19    30    58     9
   20    19    30    59     9
   21    20    19    30     9
   27    20    19    30     9
   19    20    21    22     9
   19    20    21    44     9
   19    20    21    45     9
   27    20    21    44     9
   27    20    21    45     9
   19    20    27    28     9
   19    20    27    55     9
   21    20    27    28     9
   21    20    27    55     9
   22    21    20    27     9
   20    21    22    23     9
   20    21    22    46     9
   20    21    22    47     9
   44    21    22    46     9
   44    21    22    47     9
   45    21    22    46     9
   45    21    22    47     9
   23    22    21    44     9
   23    22    21    45     9
   21    22    23    24     9
   21    22    23    25     9
   21    22    23    26     9
   24    23    22    46     9
   24    23    22    47     9
   25    23    22    46     9
   25    23    22    47     9
   26    23    22    46     9
   26    23    22    47     9
   22    23    24    48     9
   22    23    24    49     9
   22    23    24    50     9
   25    23    24    48     9
   25    23    24    49     9
   25    23    24    50     9
   26    23    24    48     9
   26    23    24    49     9
   26    23    24    50     9
   22    23    25    51     9
   24    23    25    51     9
   26    23    25    51     9
   22    23    26    52     9
   22    23    26    53     9
   22    23    26    54     9
   24    23    26    52     9
   24    23    26    53     9
   24    23    26    54     9
   25    23    26    52     9
   25    23    26    53     9
   25    23    26    54     9
   20    27    28    29     9
   20    27    28    56     9
   55    27    28    56     9
   29    28    27    55     9
   27    28    29    57     9
   56    28    29    57     9
   18    29    28    27     9
   18    29    28    56     9
   19    30     5    34     9
    5    30    19    18     9
    5    30    19    20     9

[ dihedrals ]
; ai	aj	ak	al	funct	q0	cq
    7     8     6    15     2

[ virtual_sites3 ]
; Site   from               funct theta d
   60     1    14     9     3   180.00    0.164
   61     2    10     9     3   180.00    0.164

[ exclusions ]
;   ai    aj
   60     1     1
   60    14     1
   60     9     1
   60     8     1
   60    10     1
   60    13     1
   60    12     1
   60    39     1
   61     2     1
   61    10     1
   61     9     1
   61     8     1
   61    14     1
   61    11     1
   61    12     1
   61    37     1

#ifdef POSRES
[ position_restraints ]
    1     1    POSRES_FC_BB    POSRES_FC_BB    POSRES_FC_BB   
    2     1    POSRES_FC_BB    POSRES_FC_BB    POSRES_FC_BB   
    3     1    POSRES_FC_BB    POSRES_FC_BB    POSRES_FC_BB   
    4     1    POSRES_FC_BB    POSRES_FC_BB    POSRES_FC_BB   
    5     1    POSRES_FC_BB    POSRES_FC_BB    POSRES_FC_BB   
    6     1    POSRES_FC_BB    POSRES_FC_BB    POSRES_FC_BB   
    7     1    POSRES_FC_BB    POSRES_FC_BB    POSRES_FC_BB   
    8     1    POSRES_FC_BB    POSRES_FC_BB    POSRES_FC_BB   
    9     1    POSRES_FC_BB    POSRES_FC_BB    POSRES_FC_BB   
   10     1    POSRES_FC_BB    POSRES_FC_BB    POSRES_FC_BB   
   11     1    POSRES_FC_BB    POSRES_FC_BB    POSRES_FC_BB   
   12     1    POSRES_FC_BB    POSRES_FC_BB    POSRES_FC_BB   
   13     1    POSRES_FC_BB    POSRES_FC_BB    POSRES_FC_BB   
   14     1    POSRES_FC_BB    POSRES_FC_BB    POSRES_FC_BB   
   15     1    POSRES_FC_BB    POSRES_FC_BB    POSRES_FC_BB   
   16     1    POSRES_FC_BB    POSRES_FC_BB    POSRES_FC_BB   
   17     1    POSRES_FC_BB    POSRES_FC_BB    POSRES_FC_BB   
   18     1    POSRES_FC_BB    POSRES_FC_BB    POSRES_FC_BB   
   19     1    POSRES_FC_BB    POSRES_FC_BB    POSRES_FC_BB   
   20     1    POSRES_FC_BB    POSRES_FC_BB    POSRES_FC_BB   
   21     1    POSRES_FC_BB    POSRES_FC_BB    POSRES_FC_BB   
   22     1    POSRES_FC_BB    POSRES_FC_BB    POSRES_FC_BB   
   23     1    POSRES_FC_BB    POSRES_FC_BB    POSRES_FC_BB   
   24     1    POSRES_FC_BB    POSRES_FC_BB    POSRES_FC_BB   
   25     1    POSRES_FC_BB    POSRES_FC_BB    POSRES_FC_BB   
   26     1    POSRES_FC_BB    POSRES_FC_BB    POSRES_FC_BB   
   27     1    POSRES_FC_BB    POSRES_FC_BB    POSRES_FC_BB   
   28     1    POSRES_FC_BB    POSRES_FC_BB    POSRES_FC_BB   
   29     1    POSRES_FC_BB    POSRES_FC_BB    POSRES_FC_BB   
   30     1    POSRES_FC_BB    POSRES_FC_BB    POSRES_FC_BB   
#endif
