;;
;; Generated by CHARMM-GUI FF-Converter
;;
;; Correspondance:
;; jul316@lehigh.edu or wonpil@lehigh.edu
;;
;; The main GROMACS topology file
;;

; Include forcefield parameters
#include "toppar/forcefield.itp"
#include "toppar/PROA.itp"
#include "toppar/PROB.itp"
#include "toppar/PROC.itp"
#include "toppar/PROD.itp"
#include "toppar/LDP.itp"
#include "toppar/G4C.itp"
#include "toppar/CHL1.itp"
#include "toppar/POPE.itp"
#include "toppar/POPC.itp"
#include "toppar/SOD.itp"
#include "toppar/CLA.itp"
#include "toppar/TIP3.itp"

[ system ]
; Name
Title

[ molecules ]
; Compound	#mols
PROA  	           1
PROB  	           1
PROC  	           1
PROD  	           1
LDP   	           1
G4C   	           1
CHL1  	          80
POPE  	         119
POPC  	         198
SOD   	         143
CLA   	         151
TIP3  	       52514
