;;
;; Generated by CHARMM-GUI FF-Converter
;;
;; Correspondance:
;; jul316@lehigh.edu or wonpil@lehigh.edu
;;
;; GROMACS topology file for LDP
;;


[ moleculetype ]
; name	nrexcl
LDP	     3

[ atoms ]
; nr	type	resnr	residu	atom	cgnr	charge	mass
     1     CG2R61    349      LDP     C1      1    -0.125000    12.0110   ; qtot -0.125
     2      NG3P3    349      LDP     N1      2    -0.309000    14.0070   ; qtot -0.434
     3      OG311    349      LDP     O1      3    -0.532000    15.9994   ; qtot -0.966
     4     CG2R61    349      LDP     C2      4    -0.120000    12.0110   ; qtot -1.086
     5      OG311    349      LDP     O2      5    -0.532000    15.9994   ; qtot -1.618
     6     CG2R61    349      LDP     C3      6     0.112000    12.0110   ; qtot -1.506
     7     CG2R61    349      LDP     C4      7     0.108000    12.0110   ; qtot -1.398
     8     CG2R61    349      LDP     C5      8    -0.111000    12.0110   ; qtot -1.509
     9     CG2R61    349      LDP     C6      9    -0.119000    12.0110   ; qtot -1.628
    10      CG321    349      LDP     C7     10     0.000000    12.0110   ; qtot -1.628
    11      CG324    349      LDP     C8     11     0.094000    12.0110   ; qtot -1.534
    12       HGP2    349      LDP    H01     12     0.328000     1.0080   ; qtot -1.206
    13       HGP2    349      LDP    H02     13     0.328000     1.0080   ; qtot -0.878
    14       HGP1    349      LDP    H03     14     0.421000     1.0080   ; qtot -0.457
    15      HGR61    349      LDP    H04     15     0.116000     1.0080   ; qtot -0.341
    16       HGP1    349      LDP    H05     16     0.421000     1.0080   ; qtot  0.080
    17      HGR61    349      LDP    H06     17     0.116000     1.0080   ; qtot  0.196
    18      HGR61    349      LDP    H07     18     0.116000     1.0080   ; qtot  0.312
    19       HGA2    349      LDP    H08     19     0.090000     1.0080   ; qtot  0.402
    20       HGA2    349      LDP    H09     20     0.090000     1.0080   ; qtot  0.492
    21       HGA2    349      LDP    H10     21     0.090000     1.0080   ; qtot  0.582
    22       HGA2    349      LDP    H11     22     0.090000     1.0080   ; qtot  0.672
    23       HGP2    349      LDP    H12     23     0.328000     1.0080   ; qtot  1.000

[ bonds ]
; ai	aj	funct	b0	Kb
    1     4     1
    1     9     1
    1    10     1
    2    11     1
    2    12     1
    2    13     1
    2    23     1
    3     6     1
    3    14     1
    4     6     1
    4    15     1
    5     7     1
    5    16     1
    6     7     1
    7     8     1
    8     9     1
    8    17     1
    9    18     1
   10    11     1
   10    19     1
   10    20     1
   11    21     1
   11    22     1

[ pairs ]
; ai	aj	funct	c6	c12 or
; ai	aj	funct	fudgeQQ	q1	q2	c6	c12
    1     2     1
    1     3     1
    1     7     1
    1    17     1
    1    21     1
    1    22     1
    2    19     1
    2    20     1
    3     5     1
    3     8     1
    3    15     1
    4     5     1
    4     8     1
    4    11     1
    4    14     1
    4    18     1
    4    19     1
    4    20     1
    5     9     1
    5    17     1
    6     9     1
    6    10     1
    6    16     1
    6    17     1
    7    14     1
    7    15     1
    7    18     1
    8    10     1
    8    16     1
    9    11     1
    9    15     1
    9    19     1
    9    20     1
   10    12     1
   10    13     1
   10    15     1
   10    18     1
   10    23     1
   12    21     1
   12    22     1
   13    21     1
   13    22     1
   17    18     1
   19    21     1
   19    22     1
   20    21     1
   20    22     1
   21    23     1
   22    23     1

[ angles ] 
; ai	aj	ak	funct	th0	cth	S0	Kub
    4     1     9     5
    4     1    10     5
    9     1    10     5
   11     2    12     5
   11     2    13     5
   11     2    23     5
   12     2    13     5
   12     2    23     5
   13     2    23     5
    6     3    14     5
    1     4     6     5
    1     4    15     5
    6     4    15     5
    7     5    16     5
    3     6     4     5
    3     6     7     5
    4     6     7     5
    5     7     6     5
    5     7     8     5
    6     7     8     5
    7     8     9     5
    7     8    17     5
    9     8    17     5
    1     9     8     5
    1     9    18     5
    8     9    18     5
    1    10    11     5
    1    10    19     5
    1    10    20     5
   11    10    19     5
   11    10    20     5
   19    10    20     5
    2    11    10     5
    2    11    21     5
    2    11    22     5
   10    11    21     5
   10    11    22     5
   21    11    22     5

[ dihedrals ]
; ai	aj	ak	al	funct	phi0	cp	mult
    9     1     4    15     9
   10     1     4    15     9
    4     1     9     8     9
    4     1     9    18     9
   10     1     9    18     9
    4     1    10    11     9
    4     1    10    19     9
    4     1    10    20     9
    9     1    10    11     9
    9     1    10    19     9
    9     1    10    20     9
   12     2    11    21     9
   12     2    11    22     9
   13     2    11    21     9
   13     2    11    22     9
    6     4     1     9     9
    6     4     1    10     9
    1     4     6     3     9
    1     4     6     7     9
    4     6     3    14     9
    7     6     3    14     9
    3     6     4    15     9
    7     6     4    15     9
    3     6     7     5     9
    3     6     7     8     9
    4     6     7     5     9
    4     6     7     8     9
    6     7     5    16     9
    8     7     5    16     9
    5     7     8     9     9
    5     7     8    17     9
    6     7     8     9     9
    6     7     8    17     9
    7     8     9    18     9
   17     8     9    18     9
    8     9     1    10     9
    1     9     8     7     9
    1     9     8    17     9
    1    10    11     2     9
    1    10    11    21     9
    1    10    11    22     9
   19    10    11    21     9
   19    10    11    22     9
   20    10    11    21     9
   20    10    11    22     9
   10    11     2    12     9
   10    11     2    13     9
   10    11     2    23     9
   21    11     2    23     9
   22    11     2    23     9
    2    11    10    19     9
    2    11    10    20     9

#ifdef POSRES
[ position_restraints ]
    1     1    POSRES_FC_BB    POSRES_FC_BB    POSRES_FC_BB   
    2     1    POSRES_FC_BB    POSRES_FC_BB    POSRES_FC_BB   
    3     1    POSRES_FC_BB    POSRES_FC_BB    POSRES_FC_BB   
    4     1    POSRES_FC_BB    POSRES_FC_BB    POSRES_FC_BB   
    5     1    POSRES_FC_BB    POSRES_FC_BB    POSRES_FC_BB   
    6     1    POSRES_FC_BB    POSRES_FC_BB    POSRES_FC_BB   
    7     1    POSRES_FC_BB    POSRES_FC_BB    POSRES_FC_BB   
    8     1    POSRES_FC_BB    POSRES_FC_BB    POSRES_FC_BB   
    9     1    POSRES_FC_BB    POSRES_FC_BB    POSRES_FC_BB   
   10     1    POSRES_FC_BB    POSRES_FC_BB    POSRES_FC_BB   
   11     1    POSRES_FC_BB    POSRES_FC_BB    POSRES_FC_BB   
#endif
