;;
;; Generated by CHARMM-GUI FF-Converter
;;
;; Correspondance:
;; jul316@lehigh.edu or wonpil@lehigh.edu
;;
;; GROMACS topology file for LI1
;;


[ moleculetype ]
; name	nrexcl
LI1	     3

[ atoms ]
; nr	type	resnr	residu	atom	cgnr	charge	mass
     1      CG331    299      LI1     C1      1    -0.269000    12.0110   ; qtot -0.269
     2      CG321    299      LI1     C2      2    -0.162000    12.0110   ; qtot -0.431
     3     CG2R51    299      LI1     C3      3     0.286000    12.0110   ; qtot -0.145
     4     CG2R52    299      LI1     C4      4     0.332000    12.0110   ; qtot  0.187
     5      CG2O1    299      LI1     C5      5     0.549000    12.0110   ; qtot  0.736
     6     CG2R61    299      LI1     C6      6    -0.117000    12.0110   ; qtot  0.619
     7     CG2R61    299      LI1     C7      7    -0.104000    12.0110   ; qtot  0.515
     8     CG2R61    299      LI1     C8      8    -0.156000    12.0110   ; qtot  0.359
     9      CG311    299      LI1     C9      9     0.063000    12.0110   ; qtot  0.422
    10      CG324    299      LI1    C10     10     0.149000    12.0110   ; qtot  0.571
    11      CG324    299      LI1    C11     11     0.202000    12.0110   ; qtot  0.773
    12      CG321    299      LI1    C12     12     0.021000    12.0110   ; qtot  0.794
    13     CG2R61    299      LI1    C13     13    -0.104000    12.0110   ; qtot  0.690
    14     CG2R61    299      LI1    C14     14    -0.117000    12.0110   ; qtot  0.573
    15     CG2R51    299      LI1    C15     15    -0.310000    12.0110   ; qtot  0.263
    16      CG331    299      LI1    C16     16    -0.243000    12.0110   ; qtot  0.020
    17     CG2R61    299      LI1    C17     17     0.097000    12.0110   ; qtot  0.117
    18     NG2R51    299      LI1     N1     18    -0.234000    14.0070   ; qtot -0.117
    19     NG2R50    299      LI1     N2     19    -0.367000    14.0070   ; qtot -0.484
    20      NG2S1    299      LI1     N3     20    -0.511000    14.0070   ; qtot -0.995
    21      NG3P2    299      LI1     N4     21    -0.374000    14.0070   ; qtot -1.369
    22      OG2D1    299      LI1     O1     22    -0.514000    15.9994   ; qtot -1.883
    23     OG3C61    299      LI1     O2     23    -0.197000    15.9994   ; qtot -2.080
    24       HGA3    299      LI1     H1     24     0.090000     1.0080   ; qtot -1.990
    25       HGA3    299      LI1     H2     25     0.090000     1.0080   ; qtot -1.900
    26       HGA3    299      LI1     H3     26     0.090000     1.0080   ; qtot -1.810
    27       HGA2    299      LI1     H4     27     0.090000     1.0080   ; qtot -1.720
    28       HGA2    299      LI1     H5     28     0.090000     1.0080   ; qtot -1.630
    29      HGR61    299      LI1     H6     29     0.116000     1.0080   ; qtot -1.514
    30      HGR61    299      LI1     H7     30     0.116000     1.0080   ; qtot -1.398
    31       HGA1    299      LI1     H8     31     0.090000     1.0080   ; qtot -1.308
    32       HGA2    299      LI1     H9     32     0.090000     1.0080   ; qtot -1.218
    33       HGA2    299      LI1    H10     33     0.090000     1.0080   ; qtot -1.128
    34       HGA2    299      LI1    H11     34     0.090000     1.0080   ; qtot -1.038
    35       HGA2    299      LI1    H12     35     0.090000     1.0080   ; qtot -0.948
    36       HGA2    299      LI1    H13     36     0.090000     1.0080   ; qtot -0.858
    37       HGA2    299      LI1    H14     37     0.090000     1.0080   ; qtot -0.768
    38      HGR61    299      LI1    H15     38     0.116000     1.0080   ; qtot -0.652
    39      HGR61    299      LI1    H16     39     0.116000     1.0080   ; qtot -0.536
    40       HGA3    299      LI1    H17     40     0.090000     1.0080   ; qtot -0.446
    41       HGA3    299      LI1    H18     41     0.090000     1.0080   ; qtot -0.356
    42       HGA3    299      LI1    H19     42     0.090000     1.0080   ; qtot -0.266
    43       HGP1    299      LI1    H20     43     0.300000     1.0080   ; qtot  0.034
    44       HGP1    299      LI1    H21     44     0.326000     1.0080   ; qtot  0.360
    45       HGP2    299      LI1    H22     45     0.320000     1.0080   ; qtot  0.680
    46       HGP2    299      LI1    H23     46     0.320000     1.0080   ; qtot  1.000

[ bonds ]
; ai	aj	funct	b0	Kb
    1     2     1
    1    24     1
    1    25     1
    1    26     1
    2     3     1
    2    27     1
    2    28     1
    3    15     1
    3    18     1
    4     5     1
   15     4     1
    4    19     1
   20     5     1
    5    22     1
    6     7     1
   17     6     1
    6    29     1
    8     7     1
    7    30     1
    8     9     1
   13     8     1
   10     9     1
    9    23     1
    9    31     1
   10    21     1
   10    32     1
   10    33     1
   11    12     1
   21    11     1
   11    34     1
   11    35     1
   23    12     1
   12    36     1
   12    37     1
   14    13     1
   13    38     1
   14    17     1
   14    39     1
   16    15     1
   16    40     1
   16    41     1
   16    42     1
   20    17     1
   18    19     1
   18    43     1
   20    44     1
   21    45     1
   21    46     1

[ pairs ]
; ai	aj	funct	c6	c12 or
; ai	aj	funct	fudgeQQ	q1	q2	c6	c12
    1    15     1
    1    18     1
    2     4     1
    2    16     1
    2    19     1
    2    43     1
    3     5     1
    3    24     1
    3    25     1
    3    26     1
    3    40     1
    3    41     1
    3    42     1
    4    17     1
    4    40     1
    4    41     1
    4    42     1
    4    43     1
    4    44     1
    5     6     1
    5    14     1
    5    16     1
    5    18     1
    6     9     1
    6    13     1
    6    39     1
    6    44     1
    7    10     1
    7    14     1
    7    20     1
    7    23     1
    7    31     1
    7    38     1
    8    12     1
    8    17     1
    8    21     1
    8    29     1
    8    32     1
    8    33     1
    8    39     1
    9    11     1
    9    14     1
    9    30     1
    9    36     1
    9    37     1
    9    38     1
    9    45     1
    9    46     1
   10    12     1
   10    13     1
   10    34     1
   10    35     1
   11    32     1
   11    33     1
   12    31     1
   12    45     1
   12    46     1
   13    20     1
   13    23     1
   13    30     1
   13    31     1
   14    29     1
   14    44     1
   15    20     1
   15    22     1
   15    27     1
   15    28     1
   15    43     1
   16    18     1
   16    19     1
   17    22     1
   17    30     1
   17    38     1
   18    27     1
   18    28     1
   19    20     1
   19    22     1
   20    29     1
   20    39     1
   21    23     1
   21    31     1
   21    36     1
   21    37     1
   22    44     1
   23    32     1
   23    33     1
   23    34     1
   23    35     1
   24    27     1
   24    28     1
   25    27     1
   25    28     1
   26    27     1
   26    28     1
   29    30     1
   31    32     1
   31    33     1
   32    45     1
   32    46     1
   33    45     1
   33    46     1
   34    36     1
   34    37     1
   34    45     1
   34    46     1
   35    36     1
   35    37     1
   35    45     1
   35    46     1
   38    39     1

[ angles ] 
; ai	aj	ak	funct	th0	cth	S0	Kub
    2     1    24     5
    2     1    25     5
    2     1    26     5
   24     1    25     5
   24     1    26     5
   25     1    26     5
    1     2     3     5
    1     2    27     5
    1     2    28     5
    3     2    27     5
    3     2    28     5
   27     2    28     5
    2     3    15     5
    2     3    18     5
   15     3    18     5
    5     4    15     5
    5     4    19     5
   15     4    19     5
    4     5    20     5
    4     5    22     5
   20     5    22     5
    7     6    17     5
    7     6    29     5
   17     6    29     5
    6     7     8     5
    6     7    30     5
    8     7    30     5
    7     8     9     5
    7     8    13     5
    9     8    13     5
    8     9    10     5
    8     9    23     5
    8     9    31     5
   10     9    23     5
   10     9    31     5
   23     9    31     5
    9    10    21     5
    9    10    32     5
    9    10    33     5
   21    10    32     5
   21    10    33     5
   32    10    33     5
   12    11    21     5
   12    11    34     5
   12    11    35     5
   21    11    34     5
   21    11    35     5
   34    11    35     5
   11    12    23     5
   11    12    36     5
   11    12    37     5
   23    12    36     5
   23    12    37     5
   36    12    37     5
    8    13    14     5
    8    13    38     5
   14    13    38     5
   13    14    17     5
   13    14    39     5
   17    14    39     5
    3    15     4     5
    3    15    16     5
    4    15    16     5
   15    16    40     5
   15    16    41     5
   15    16    42     5
   40    16    41     5
   40    16    42     5
   41    16    42     5
    6    17    14     5
    6    17    20     5
   14    17    20     5
    3    18    19     5
    3    18    43     5
   19    18    43     5
    4    19    18     5
    5    20    17     5
    5    20    44     5
   17    20    44     5
   10    21    11     5
   10    21    45     5
   10    21    46     5
   11    21    45     5
   11    21    46     5
   45    21    46     5
    9    23    12     5

[ dihedrals ]
; ai	aj	ak	al	funct	phi0	cp	mult
   24     1     2    27     9
   24     1     2    28     9
   25     1     2    27     9
   25     1     2    28     9
   26     1     2    27     9
   26     1     2    28     9
    3     2     1    24     9
    3     2     1    25     9
    3     2     1    26     9
    1     2     3    15     9
    1     2     3    18     9
   15     3     2    27     9
   15     3     2    28     9
   18     3     2    27     9
   18     3     2    28     9
    2     3    15     4     9
    2     3    15    16     9
    2     3    18    19     9
    2     3    18    43     9
   15     3    18    19     9
   15     3    18    43     9
   15     4     5    20     9
   15     4     5    22     9
   19     4     5    20     9
   19     4     5    22     9
    5     4    15    16     9
    5     4    19    18     9
   15     4    19    18     9
    4     5    20    17     9
    4     5    20    44     9
   22     5    20    44     9
   17     6     7    30     9
   29     6     7    30     9
    7     6    17    14     9
    7     6    17    20     9
    8     7     6    17     9
    8     7     6    29     9
    6     7     8     9     9
    6     7     8    13     9
    9     8     7    30     9
   13     8     7    30     9
    7     8     9    10     9
    7     8     9    23     9
    7     8     9    31     9
   13     8     9    23     9
   13     8     9    31     9
    7     8    13    14     9
    7     8    13    38     9
    9     8    13    14     9
    9     8    13    38     9
   10     9     8    13     9
    8     9    10    21     9
    8     9    10    32     9
    8     9    10    33     9
   23     9    10    32     9
   23     9    10    33     9
   31     9    10    32     9
   31     9    10    33     9
    8     9    23    12     9
   10     9    23    12     9
   21    10     9    23     9
   21    10     9    31     9
    9    10    21    11     9
    9    10    21    45     9
    9    10    21    46     9
   32    10    21    45     9
   32    10    21    46     9
   33    10    21    45     9
   33    10    21    46     9
   21    11    12    23     9
   21    11    12    36     9
   21    11    12    37     9
   34    11    12    36     9
   34    11    12    37     9
   35    11    12    36     9
   35    11    12    37     9
   12    11    21    45     9
   12    11    21    46     9
   34    11    21    45     9
   34    11    21    46     9
   35    11    21    45     9
   35    11    21    46     9
   23    12    11    34     9
   23    12    11    35     9
    8    13    14    17     9
    8    13    14    39     9
   38    13    14    39     9
   17    14    13    38     9
   13    14    17    20     9
    4    15     3    18     9
   16    15     3    18     9
    3    15     4     5     9
    3    15     4    19     9
   16    15     4    19     9
    3    15    16    40     9
    3    15    16    41     9
    3    15    16    42     9
    4    15    16    40     9
    4    15    16    41     9
    4    15    16    42     9
   14    17     6    29     9
   20    17     6    29     9
    6    17    14    13     9
    6    17    14    39     9
   20    17    14    39     9
    6    17    20    44     9
   14    17    20    44     9
    3    18    19     4     9
    4    19    18    43     9
   17    20     5    22     9
    5    20    17     6     9
    5    20    17    14     9
   11    21    10    32     9
   11    21    10    33     9
   10    21    11    12     9
   10    21    11    34     9
   10    21    11    35     9
   12    23     9    31     9
    9    23    12    11     9
    9    23    12    36     9
    9    23    12    37     9

[ dihedrals ]
; ai	aj	ak	al	funct	q0	cq
    5     4    20    22     2

#ifdef POSRES
[ position_restraints ]
    1     1    POSRES_FC_BB    POSRES_FC_BB    POSRES_FC_BB   
    2     1    POSRES_FC_BB    POSRES_FC_BB    POSRES_FC_BB   
    3     1    POSRES_FC_BB    POSRES_FC_BB    POSRES_FC_BB   
    4     1    POSRES_FC_BB    POSRES_FC_BB    POSRES_FC_BB   
    5     1    POSRES_FC_BB    POSRES_FC_BB    POSRES_FC_BB   
    6     1    POSRES_FC_BB    POSRES_FC_BB    POSRES_FC_BB   
    7     1    POSRES_FC_BB    POSRES_FC_BB    POSRES_FC_BB   
    8     1    POSRES_FC_BB    POSRES_FC_BB    POSRES_FC_BB   
    9     1    POSRES_FC_BB    POSRES_FC_BB    POSRES_FC_BB   
   10     1    POSRES_FC_BB    POSRES_FC_BB    POSRES_FC_BB   
   11     1    POSRES_FC_BB    POSRES_FC_BB    POSRES_FC_BB   
   12     1    POSRES_FC_BB    POSRES_FC_BB    POSRES_FC_BB   
   13     1    POSRES_FC_BB    POSRES_FC_BB    POSRES_FC_BB   
   14     1    POSRES_FC_BB    POSRES_FC_BB    POSRES_FC_BB   
   15     1    POSRES_FC_BB    POSRES_FC_BB    POSRES_FC_BB   
   16     1    POSRES_FC_BB    POSRES_FC_BB    POSRES_FC_BB   
   17     1    POSRES_FC_BB    POSRES_FC_BB    POSRES_FC_BB   
   18     1    POSRES_FC_BB    POSRES_FC_BB    POSRES_FC_BB   
   19     1    POSRES_FC_BB    POSRES_FC_BB    POSRES_FC_BB   
   20     1    POSRES_FC_BB    POSRES_FC_BB    POSRES_FC_BB   
   21     1    POSRES_FC_BB    POSRES_FC_BB    POSRES_FC_BB   
   22     1    POSRES_FC_BB    POSRES_FC_BB    POSRES_FC_BB   
   23     1    POSRES_FC_BB    POSRES_FC_BB    POSRES_FC_BB   
#endif
